    1C
    1UUSER                                                              
    1UDATE              25.january.2014                                 
    1UTIME              20:30:04                                        
    1UHOST                                                              
    1UPGM               CalculiX                                        
    1UDIR                                                               
    1UDBN                                                               
    2C                          2162                                     1
 -1         1 0.00000E+00 0.00000E+00 0.00000E+00
 -1         2 1.00000E+00 0.00000E+00 0.00000E+00
 -1         3 1.00000E+00 1.00000E+00 0.00000E+00
 -1         4 0.00000E+00 1.00000E+00 0.00000E+00
 -1         5 5.00000E-02 0.00000E+00 0.00000E+00
 -1         6 1.00000E-01 0.00000E+00 0.00000E+00
 -1         7 1.50000E-01 0.00000E+00 0.00000E+00
 -1         8 2.00000E-01 0.00000E+00 0.00000E+00
 -1         9 2.50000E-01 0.00000E+00 0.00000E+00
 -1        10 3.00000E-01 0.00000E+00 0.00000E+00
 -1        11 3.50000E-01 0.00000E+00 0.00000E+00
 -1        12 4.00000E-01 0.00000E+00 0.00000E+00
 -1        13 4.50000E-01 0.00000E+00 0.00000E+00
 -1        14 5.00000E-01 0.00000E+00 0.00000E+00
 -1        15 5.50000E-01 0.00000E+00 0.00000E+00
 -1        16 6.00000E-01 0.00000E+00 0.00000E+00
 -1        17 6.50000E-01 0.00000E+00 0.00000E+00
 -1        18 7.00000E-01 0.00000E+00 0.00000E+00
 -1        19 7.50000E-01 0.00000E+00 0.00000E+00
 -1        20 8.00000E-01 0.00000E+00 0.00000E+00
 -1        21 8.50000E-01 0.00000E+00 0.00000E+00
 -1        22 9.00000E-01 0.00000E+00 0.00000E+00
 -1        23 9.50000E-01 0.00000E+00 0.00000E+00
 -1        24 1.00000E+00 5.00000E-02 0.00000E+00
 -1        25 1.00000E+00 1.00000E-01 0.00000E+00
 -1        26 1.00000E+00 1.50000E-01 0.00000E+00
 -1        27 1.00000E+00 2.00000E-01 0.00000E+00
 -1        28 1.00000E+00 2.50000E-01 0.00000E+00
 -1        29 1.00000E+00 3.00000E-01 0.00000E+00
 -1        30 1.00000E+00 3.50000E-01 0.00000E+00
 -1        31 1.00000E+00 4.00000E-01 0.00000E+00
 -1        32 1.00000E+00 4.50000E-01 0.00000E+00
 -1        33 1.00000E+00 5.00000E-01 0.00000E+00
 -1        34 1.00000E+00 5.50000E-01 0.00000E+00
 -1        35 1.00000E+00 6.00000E-01 0.00000E+00
 -1        36 1.00000E+00 6.50000E-01 0.00000E+00
 -1        37 1.00000E+00 7.00000E-01 0.00000E+00
 -1        38 1.00000E+00 7.50000E-01 0.00000E+00
 -1        39 1.00000E+00 8.00000E-01 0.00000E+00
 -1        40 1.00000E+00 8.50000E-01 0.00000E+00
 -1        41 1.00000E+00 9.00000E-01 0.00000E+00
 -1        42 1.00000E+00 9.50000E-01 0.00000E+00
 -1        43 9.50000E-01 1.00000E+00 0.00000E+00
 -1        44 9.00000E-01 1.00000E+00 0.00000E+00
 -1        45 8.50000E-01 1.00000E+00 0.00000E+00
 -1        46 8.00000E-01 1.00000E+00 0.00000E+00
 -1        47 7.50000E-01 1.00000E+00 0.00000E+00
 -1        48 7.00000E-01 1.00000E+00 0.00000E+00
 -1        49 6.50000E-01 1.00000E+00 0.00000E+00
 -1        50 6.00000E-01 1.00000E+00 0.00000E+00
 -1        51 5.50000E-01 1.00000E+00 0.00000E+00
 -1        52 5.00000E-01 1.00000E+00 0.00000E+00
 -1        53 4.50000E-01 1.00000E+00 0.00000E+00
 -1        54 4.00000E-01 1.00000E+00 0.00000E+00
 -1        55 3.50000E-01 1.00000E+00 0.00000E+00
 -1        56 3.00000E-01 1.00000E+00 0.00000E+00
 -1        57 2.50000E-01 1.00000E+00 0.00000E+00
 -1        58 2.00000E-01 1.00000E+00 0.00000E+00
 -1        59 1.50000E-01 1.00000E+00 0.00000E+00
 -1        60 1.00000E-01 1.00000E+00 0.00000E+00
 -1        61 5.00000E-02 1.00000E+00 0.00000E+00
 -1        62 0.00000E+00 9.50000E-01 0.00000E+00
 -1        63 0.00000E+00 9.00000E-01 0.00000E+00
 -1        64 0.00000E+00 8.50000E-01 0.00000E+00
 -1        65 0.00000E+00 8.00000E-01 0.00000E+00
 -1        66 0.00000E+00 7.50000E-01 0.00000E+00
 -1        67 0.00000E+00 7.00000E-01 0.00000E+00
 -1        68 0.00000E+00 6.50000E-01 0.00000E+00
 -1        69 0.00000E+00 6.00000E-01 0.00000E+00
 -1        70 0.00000E+00 5.50000E-01 0.00000E+00
 -1        71 0.00000E+00 5.00000E-01 0.00000E+00
 -1        72 0.00000E+00 4.50000E-01 0.00000E+00
 -1        73 0.00000E+00 4.00000E-01 0.00000E+00
 -1        74 0.00000E+00 3.50000E-01 0.00000E+00
 -1        75 0.00000E+00 3.00000E-01 0.00000E+00
 -1        76 0.00000E+00 2.50000E-01 0.00000E+00
 -1        77 0.00000E+00 2.00000E-01 0.00000E+00
 -1        78 0.00000E+00 1.50000E-01 0.00000E+00
 -1        79 0.00000E+00 1.00000E-01 0.00000E+00
 -1        80 0.00000E+00 5.00000E-02 0.00000E+00
 -1       442 0.00000E+00 0.00000E+00-5.00000E-03
 -1       444 0.00000E+00 0.00000E+00 5.00000E-03
 -1       445 1.00000E+00 0.00000E+00-5.00000E-03
 -1       447 1.00000E+00 0.00000E+00 5.00000E-03
 -1       448 1.00000E+00 1.00000E+00-5.00000E-03
 -1       450 1.00000E+00 1.00000E+00 5.00000E-03
 -1       451 0.00000E+00 1.00000E+00-5.00000E-03
 -1       453 0.00000E+00 1.00000E+00 5.00000E-03
 -1       454 5.00000E-02 0.00000E+00-5.00000E-03
 -1       456 5.00000E-02 0.00000E+00 5.00000E-03
 -1       457 1.00000E-01 0.00000E+00-5.00000E-03
 -1       459 1.00000E-01 0.00000E+00 5.00000E-03
 -1       460 1.50000E-01 0.00000E+00-5.00000E-03
 -1       462 1.50000E-01 0.00000E+00 5.00000E-03
 -1       463 2.00000E-01 0.00000E+00-5.00000E-03
 -1       465 2.00000E-01 0.00000E+00 5.00000E-03
 -1       466 2.50000E-01 0.00000E+00-5.00000E-03
 -1       468 2.50000E-01 0.00000E+00 5.00000E-03
 -1       469 3.00000E-01 0.00000E+00-5.00000E-03
 -1       471 3.00000E-01 0.00000E+00 5.00000E-03
 -1       472 3.50000E-01 0.00000E+00-5.00000E-03
 -1       474 3.50000E-01 0.00000E+00 5.00000E-03
 -1       475 4.00000E-01 0.00000E+00-5.00000E-03
 -1       477 4.00000E-01 0.00000E+00 5.00000E-03
 -1       478 4.50000E-01 0.00000E+00-5.00000E-03
 -1       480 4.50000E-01 0.00000E+00 5.00000E-03
 -1       481 5.00000E-01 0.00000E+00-5.00000E-03
 -1       483 5.00000E-01 0.00000E+00 5.00000E-03
 -1       484 5.50000E-01 0.00000E+00-5.00000E-03
 -1       486 5.50000E-01 0.00000E+00 5.00000E-03
 -1       487 6.00000E-01 0.00000E+00-5.00000E-03
 -1       489 6.00000E-01 0.00000E+00 5.00000E-03
 -1       490 6.50000E-01 0.00000E+00-5.00000E-03
 -1       492 6.50000E-01 0.00000E+00 5.00000E-03
 -1       493 7.00000E-01 0.00000E+00-5.00000E-03
 -1       495 7.00000E-01 0.00000E+00 5.00000E-03
 -1       496 7.50000E-01 0.00000E+00-5.00000E-03
 -1       498 7.50000E-01 0.00000E+00 5.00000E-03
 -1       499 8.00000E-01 0.00000E+00-5.00000E-03
 -1       501 8.00000E-01 0.00000E+00 5.00000E-03
 -1       502 8.50000E-01 0.00000E+00-5.00000E-03
 -1       504 8.50000E-01 0.00000E+00 5.00000E-03
 -1       505 9.00000E-01 0.00000E+00-5.00000E-03
 -1       507 9.00000E-01 0.00000E+00 5.00000E-03
 -1       508 9.50000E-01 0.00000E+00-5.00000E-03
 -1       510 9.50000E-01 0.00000E+00 5.00000E-03
 -1       511 1.00000E+00 5.00000E-02-5.00000E-03
 -1       513 1.00000E+00 5.00000E-02 5.00000E-03
 -1       514 1.00000E+00 1.00000E-01-5.00000E-03
 -1       516 1.00000E+00 1.00000E-01 5.00000E-03
 -1       517 1.00000E+00 1.50000E-01-5.00000E-03
 -1       519 1.00000E+00 1.50000E-01 5.00000E-03
 -1       520 1.00000E+00 2.00000E-01-5.00000E-03
 -1       522 1.00000E+00 2.00000E-01 5.00000E-03
 -1       523 1.00000E+00 2.50000E-01-5.00000E-03
 -1       525 1.00000E+00 2.50000E-01 5.00000E-03
 -1       526 1.00000E+00 3.00000E-01-5.00000E-03
 -1       528 1.00000E+00 3.00000E-01 5.00000E-03
 -1       529 1.00000E+00 3.50000E-01-5.00000E-03
 -1       531 1.00000E+00 3.50000E-01 5.00000E-03
 -1       532 1.00000E+00 4.00000E-01-5.00000E-03
 -1       534 1.00000E+00 4.00000E-01 5.00000E-03
 -1       535 1.00000E+00 4.50000E-01-5.00000E-03
 -1       537 1.00000E+00 4.50000E-01 5.00000E-03
 -1       538 1.00000E+00 5.00000E-01-5.00000E-03
 -1       540 1.00000E+00 5.00000E-01 5.00000E-03
 -1       541 1.00000E+00 5.50000E-01-5.00000E-03
 -1       543 1.00000E+00 5.50000E-01 5.00000E-03
 -1       544 1.00000E+00 6.00000E-01-5.00000E-03
 -1       546 1.00000E+00 6.00000E-01 5.00000E-03
 -1       547 1.00000E+00 6.50000E-01-5.00000E-03
 -1       549 1.00000E+00 6.50000E-01 5.00000E-03
 -1       550 1.00000E+00 7.00000E-01-5.00000E-03
 -1       552 1.00000E+00 7.00000E-01 5.00000E-03
 -1       553 1.00000E+00 7.50000E-01-5.00000E-03
 -1       555 1.00000E+00 7.50000E-01 5.00000E-03
 -1       556 1.00000E+00 8.00000E-01-5.00000E-03
 -1       558 1.00000E+00 8.00000E-01 5.00000E-03
 -1       559 1.00000E+00 8.50000E-01-5.00000E-03
 -1       561 1.00000E+00 8.50000E-01 5.00000E-03
 -1       562 1.00000E+00 9.00000E-01-5.00000E-03
 -1       564 1.00000E+00 9.00000E-01 5.00000E-03
 -1       565 1.00000E+00 9.50000E-01-5.00000E-03
 -1       567 1.00000E+00 9.50000E-01 5.00000E-03
 -1       568 9.50000E-01 1.00000E+00-5.00000E-03
 -1       570 9.50000E-01 1.00000E+00 5.00000E-03
 -1       571 9.00000E-01 1.00000E+00-5.00000E-03
 -1       573 9.00000E-01 1.00000E+00 5.00000E-03
 -1       574 8.50000E-01 1.00000E+00-5.00000E-03
 -1       576 8.50000E-01 1.00000E+00 5.00000E-03
 -1       577 8.00000E-01 1.00000E+00-5.00000E-03
 -1       579 8.00000E-01 1.00000E+00 5.00000E-03
 -1       580 7.50000E-01 1.00000E+00-5.00000E-03
 -1       582 7.50000E-01 1.00000E+00 5.00000E-03
 -1       583 7.00000E-01 1.00000E+00-5.00000E-03
 -1       585 7.00000E-01 1.00000E+00 5.00000E-03
 -1       586 6.50000E-01 1.00000E+00-5.00000E-03
 -1       588 6.50000E-01 1.00000E+00 5.00000E-03
 -1       589 6.00000E-01 1.00000E+00-5.00000E-03
 -1       591 6.00000E-01 1.00000E+00 5.00000E-03
 -1       592 5.50000E-01 1.00000E+00-5.00000E-03
 -1       594 5.50000E-01 1.00000E+00 5.00000E-03
 -1       595 5.00000E-01 1.00000E+00-5.00000E-03
 -1       597 5.00000E-01 1.00000E+00 5.00000E-03
 -1       598 4.50000E-01 1.00000E+00-5.00000E-03
 -1       600 4.50000E-01 1.00000E+00 5.00000E-03
 -1       601 4.00000E-01 1.00000E+00-5.00000E-03
 -1       603 4.00000E-01 1.00000E+00 5.00000E-03
 -1       604 3.50000E-01 1.00000E+00-5.00000E-03
 -1       606 3.50000E-01 1.00000E+00 5.00000E-03
 -1       607 3.00000E-01 1.00000E+00-5.00000E-03
 -1       609 3.00000E-01 1.00000E+00 5.00000E-03
 -1       610 2.50000E-01 1.00000E+00-5.00000E-03
 -1       612 2.50000E-01 1.00000E+00 5.00000E-03
 -1       613 2.00000E-01 1.00000E+00-5.00000E-03
 -1       615 2.00000E-01 1.00000E+00 5.00000E-03
 -1       616 1.50000E-01 1.00000E+00-5.00000E-03
 -1       618 1.50000E-01 1.00000E+00 5.00000E-03
 -1       619 1.00000E-01 1.00000E+00-5.00000E-03
 -1       621 1.00000E-01 1.00000E+00 5.00000E-03
 -1       622 5.00000E-02 1.00000E+00-5.00000E-03
 -1       624 5.00000E-02 1.00000E+00 5.00000E-03
 -1       625 0.00000E+00 9.50000E-01-5.00000E-03
 -1       627 0.00000E+00 9.50000E-01 5.00000E-03
 -1       628 0.00000E+00 9.00000E-01-5.00000E-03
 -1       630 0.00000E+00 9.00000E-01 5.00000E-03
 -1       631 0.00000E+00 8.50000E-01-5.00000E-03
 -1       633 0.00000E+00 8.50000E-01 5.00000E-03
 -1       634 0.00000E+00 8.00000E-01-5.00000E-03
 -1       636 0.00000E+00 8.00000E-01 5.00000E-03
 -1       637 0.00000E+00 7.50000E-01-5.00000E-03
 -1       639 0.00000E+00 7.50000E-01 5.00000E-03
 -1       640 0.00000E+00 7.00000E-01-5.00000E-03
 -1       642 0.00000E+00 7.00000E-01 5.00000E-03
 -1       643 0.00000E+00 6.50000E-01-5.00000E-03
 -1       645 0.00000E+00 6.50000E-01 5.00000E-03
 -1       646 0.00000E+00 6.00000E-01-5.00000E-03
 -1       648 0.00000E+00 6.00000E-01 5.00000E-03
 -1       649 0.00000E+00 5.50000E-01-5.00000E-03
 -1       651 0.00000E+00 5.50000E-01 5.00000E-03
 -1       652 0.00000E+00 5.00000E-01-5.00000E-03
 -1       654 0.00000E+00 5.00000E-01 5.00000E-03
 -1       655 0.00000E+00 4.50000E-01-5.00000E-03
 -1       657 0.00000E+00 4.50000E-01 5.00000E-03
 -1       658 0.00000E+00 4.00000E-01-5.00000E-03
 -1       660 0.00000E+00 4.00000E-01 5.00000E-03
 -1       661 0.00000E+00 3.50000E-01-5.00000E-03
 -1       663 0.00000E+00 3.50000E-01 5.00000E-03
 -1       664 0.00000E+00 3.00000E-01-5.00000E-03
 -1       666 0.00000E+00 3.00000E-01 5.00000E-03
 -1       667 0.00000E+00 2.50000E-01-5.00000E-03
 -1       669 0.00000E+00 2.50000E-01 5.00000E-03
 -1       670 0.00000E+00 2.00000E-01-5.00000E-03
 -1       672 0.00000E+00 2.00000E-01 5.00000E-03
 -1       673 0.00000E+00 1.50000E-01-5.00000E-03
 -1       675 0.00000E+00 1.50000E-01 5.00000E-03
 -1       676 0.00000E+00 1.00000E-01-5.00000E-03
 -1       678 0.00000E+00 1.00000E-01 5.00000E-03
 -1       679 0.00000E+00 5.00000E-02-5.00000E-03
 -1       681 0.00000E+00 5.00000E-02 5.00000E-03
 -1       682 9.50000E-01 9.50000E-01-5.00000E-03
 -1       684 9.50000E-01 9.50000E-01 5.00000E-03
 -1       685 9.50000E-01 9.00000E-01-5.00000E-03
 -1       687 9.50000E-01 9.00000E-01 5.00000E-03
 -1       688 9.50000E-01 8.50000E-01-5.00000E-03
 -1       690 9.50000E-01 8.50000E-01 5.00000E-03
 -1       691 9.50000E-01 8.00000E-01-5.00000E-03
 -1       693 9.50000E-01 8.00000E-01 5.00000E-03
 -1       694 9.50000E-01 7.50000E-01-5.00000E-03
 -1       696 9.50000E-01 7.50000E-01 5.00000E-03
 -1       697 9.50000E-01 7.00000E-01-5.00000E-03
 -1       699 9.50000E-01 7.00000E-01 5.00000E-03
 -1       700 9.50000E-01 6.50000E-01-5.00000E-03
 -1       702 9.50000E-01 6.50000E-01 5.00000E-03
 -1       703 9.50000E-01 6.00000E-01-5.00000E-03
 -1       705 9.50000E-01 6.00000E-01 5.00000E-03
 -1       706 9.50000E-01 5.50000E-01-5.00000E-03
 -1       708 9.50000E-01 5.50000E-01 5.00000E-03
 -1       709 9.50000E-01 5.00000E-01-5.00000E-03
 -1       711 9.50000E-01 5.00000E-01 5.00000E-03
 -1       712 9.50000E-01 4.50000E-01-5.00000E-03
 -1       714 9.50000E-01 4.50000E-01 5.00000E-03
 -1       715 9.50000E-01 4.00000E-01-5.00000E-03
 -1       717 9.50000E-01 4.00000E-01 5.00000E-03
 -1       718 9.50000E-01 3.50000E-01-5.00000E-03
 -1       720 9.50000E-01 3.50000E-01 5.00000E-03
 -1       721 9.50000E-01 3.00000E-01-5.00000E-03
 -1       723 9.50000E-01 3.00000E-01 5.00000E-03
 -1       724 9.50000E-01 2.50000E-01-5.00000E-03
 -1       726 9.50000E-01 2.50000E-01 5.00000E-03
 -1       727 9.50000E-01 2.00000E-01-5.00000E-03
 -1       729 9.50000E-01 2.00000E-01 5.00000E-03
 -1       730 9.50000E-01 1.50000E-01-5.00000E-03
 -1       732 9.50000E-01 1.50000E-01 5.00000E-03
 -1       733 9.50000E-01 1.00000E-01-5.00000E-03
 -1       735 9.50000E-01 1.00000E-01 5.00000E-03
 -1       736 9.50000E-01 5.00000E-02-5.00000E-03
 -1       738 9.50000E-01 5.00000E-02 5.00000E-03
 -1       739 9.00000E-01 9.50000E-01-5.00000E-03
 -1       741 9.00000E-01 9.50000E-01 5.00000E-03
 -1       742 9.00000E-01 9.00000E-01-5.00000E-03
 -1       744 9.00000E-01 9.00000E-01 5.00000E-03
 -1       745 9.00000E-01 8.50000E-01-5.00000E-03
 -1       747 9.00000E-01 8.50000E-01 5.00000E-03
 -1       748 9.00000E-01 8.00000E-01-5.00000E-03
 -1       750 9.00000E-01 8.00000E-01 5.00000E-03
 -1       751 9.00000E-01 7.50000E-01-5.00000E-03
 -1       753 9.00000E-01 7.50000E-01 5.00000E-03
 -1       754 9.00000E-01 7.00000E-01-5.00000E-03
 -1       756 9.00000E-01 7.00000E-01 5.00000E-03
 -1       757 9.00000E-01 6.50000E-01-5.00000E-03
 -1       759 9.00000E-01 6.50000E-01 5.00000E-03
 -1       760 9.00000E-01 6.00000E-01-5.00000E-03
 -1       762 9.00000E-01 6.00000E-01 5.00000E-03
 -1       763 9.00000E-01 5.50000E-01-5.00000E-03
 -1       765 9.00000E-01 5.50000E-01 5.00000E-03
 -1       766 9.00000E-01 5.00000E-01-5.00000E-03
 -1       768 9.00000E-01 5.00000E-01 5.00000E-03
 -1       769 9.00000E-01 4.50000E-01-5.00000E-03
 -1       771 9.00000E-01 4.50000E-01 5.00000E-03
 -1       772 9.00000E-01 4.00000E-01-5.00000E-03
 -1       774 9.00000E-01 4.00000E-01 5.00000E-03
 -1       775 9.00000E-01 3.50000E-01-5.00000E-03
 -1       777 9.00000E-01 3.50000E-01 5.00000E-03
 -1       778 9.00000E-01 3.00000E-01-5.00000E-03
 -1       780 9.00000E-01 3.00000E-01 5.00000E-03
 -1       781 9.00000E-01 2.50000E-01-5.00000E-03
 -1       783 9.00000E-01 2.50000E-01 5.00000E-03
 -1       784 9.00000E-01 2.00000E-01-5.00000E-03
 -1       786 9.00000E-01 2.00000E-01 5.00000E-03
 -1       787 9.00000E-01 1.50000E-01-5.00000E-03
 -1       789 9.00000E-01 1.50000E-01 5.00000E-03
 -1       790 9.00000E-01 1.00000E-01-5.00000E-03
 -1       792 9.00000E-01 1.00000E-01 5.00000E-03
 -1       793 9.00000E-01 5.00000E-02-5.00000E-03
 -1       795 9.00000E-01 5.00000E-02 5.00000E-03
 -1       796 8.50000E-01 9.50000E-01-5.00000E-03
 -1       798 8.50000E-01 9.50000E-01 5.00000E-03
 -1       799 8.50000E-01 9.00000E-01-5.00000E-03
 -1       801 8.50000E-01 9.00000E-01 5.00000E-03
 -1       802 8.50000E-01 8.50000E-01-5.00000E-03
 -1       804 8.50000E-01 8.50000E-01 5.00000E-03
 -1       805 8.50000E-01 8.00000E-01-5.00000E-03
 -1       807 8.50000E-01 8.00000E-01 5.00000E-03
 -1       808 8.50000E-01 7.50000E-01-5.00000E-03
 -1       810 8.50000E-01 7.50000E-01 5.00000E-03
 -1       811 8.50000E-01 7.00000E-01-5.00000E-03
 -1       813 8.50000E-01 7.00000E-01 5.00000E-03
 -1       814 8.50000E-01 6.50000E-01-5.00000E-03
 -1       816 8.50000E-01 6.50000E-01 5.00000E-03
 -1       817 8.50000E-01 6.00000E-01-5.00000E-03
 -1       819 8.50000E-01 6.00000E-01 5.00000E-03
 -1       820 8.50000E-01 5.50000E-01-5.00000E-03
 -1       822 8.50000E-01 5.50000E-01 5.00000E-03
 -1       823 8.50000E-01 5.00000E-01-5.00000E-03
 -1       825 8.50000E-01 5.00000E-01 5.00000E-03
 -1       826 8.50000E-01 4.50000E-01-5.00000E-03
 -1       828 8.50000E-01 4.50000E-01 5.00000E-03
 -1       829 8.50000E-01 4.00000E-01-5.00000E-03
 -1       831 8.50000E-01 4.00000E-01 5.00000E-03
 -1       832 8.50000E-01 3.50000E-01-5.00000E-03
 -1       834 8.50000E-01 3.50000E-01 5.00000E-03
 -1       835 8.50000E-01 3.00000E-01-5.00000E-03
 -1       837 8.50000E-01 3.00000E-01 5.00000E-03
 -1       838 8.50000E-01 2.50000E-01-5.00000E-03
 -1       840 8.50000E-01 2.50000E-01 5.00000E-03
 -1       841 8.50000E-01 2.00000E-01-5.00000E-03
 -1       843 8.50000E-01 2.00000E-01 5.00000E-03
 -1       844 8.50000E-01 1.50000E-01-5.00000E-03
 -1       846 8.50000E-01 1.50000E-01 5.00000E-03
 -1       847 8.50000E-01 1.00000E-01-5.00000E-03
 -1       849 8.50000E-01 1.00000E-01 5.00000E-03
 -1       850 8.50000E-01 5.00000E-02-5.00000E-03
 -1       852 8.50000E-01 5.00000E-02 5.00000E-03
 -1       853 8.00000E-01 9.50000E-01-5.00000E-03
 -1       855 8.00000E-01 9.50000E-01 5.00000E-03
 -1       856 8.00000E-01 9.00000E-01-5.00000E-03
 -1       858 8.00000E-01 9.00000E-01 5.00000E-03
 -1       859 8.00000E-01 8.50000E-01-5.00000E-03
 -1       861 8.00000E-01 8.50000E-01 5.00000E-03
 -1       862 8.00000E-01 8.00000E-01-5.00000E-03
 -1       864 8.00000E-01 8.00000E-01 5.00000E-03
 -1       865 8.00000E-01 7.50000E-01-5.00000E-03
 -1       867 8.00000E-01 7.50000E-01 5.00000E-03
 -1       868 8.00000E-01 7.00000E-01-5.00000E-03
 -1       870 8.00000E-01 7.00000E-01 5.00000E-03
 -1       871 8.00000E-01 6.50000E-01-5.00000E-03
 -1       873 8.00000E-01 6.50000E-01 5.00000E-03
 -1       874 8.00000E-01 6.00000E-01-5.00000E-03
 -1       876 8.00000E-01 6.00000E-01 5.00000E-03
 -1       877 8.00000E-01 5.50000E-01-5.00000E-03
 -1       879 8.00000E-01 5.50000E-01 5.00000E-03
 -1       880 8.00000E-01 5.00000E-01-5.00000E-03
 -1       882 8.00000E-01 5.00000E-01 5.00000E-03
 -1       883 8.00000E-01 4.50000E-01-5.00000E-03
 -1       885 8.00000E-01 4.50000E-01 5.00000E-03
 -1       886 8.00000E-01 4.00000E-01-5.00000E-03
 -1       888 8.00000E-01 4.00000E-01 5.00000E-03
 -1       889 8.00000E-01 3.50000E-01-5.00000E-03
 -1       891 8.00000E-01 3.50000E-01 5.00000E-03
 -1       892 8.00000E-01 3.00000E-01-5.00000E-03
 -1       894 8.00000E-01 3.00000E-01 5.00000E-03
 -1       895 8.00000E-01 2.50000E-01-5.00000E-03
 -1       897 8.00000E-01 2.50000E-01 5.00000E-03
 -1       898 8.00000E-01 2.00000E-01-5.00000E-03
 -1       900 8.00000E-01 2.00000E-01 5.00000E-03
 -1       901 8.00000E-01 1.50000E-01-5.00000E-03
 -1       903 8.00000E-01 1.50000E-01 5.00000E-03
 -1       904 8.00000E-01 1.00000E-01-5.00000E-03
 -1       906 8.00000E-01 1.00000E-01 5.00000E-03
 -1       907 8.00000E-01 5.00000E-02-5.00000E-03
 -1       909 8.00000E-01 5.00000E-02 5.00000E-03
 -1       910 7.50000E-01 9.50000E-01-5.00000E-03
 -1       912 7.50000E-01 9.50000E-01 5.00000E-03
 -1       913 7.50000E-01 9.00000E-01-5.00000E-03
 -1       915 7.50000E-01 9.00000E-01 5.00000E-03
 -1       916 7.50000E-01 8.50000E-01-5.00000E-03
 -1       918 7.50000E-01 8.50000E-01 5.00000E-03
 -1       919 7.50000E-01 8.00000E-01-5.00000E-03
 -1       921 7.50000E-01 8.00000E-01 5.00000E-03
 -1       922 7.50000E-01 7.50000E-01-5.00000E-03
 -1       924 7.50000E-01 7.50000E-01 5.00000E-03
 -1       925 7.50000E-01 7.00000E-01-5.00000E-03
 -1       927 7.50000E-01 7.00000E-01 5.00000E-03
 -1       928 7.50000E-01 6.50000E-01-5.00000E-03
 -1       930 7.50000E-01 6.50000E-01 5.00000E-03
 -1       931 7.50000E-01 6.00000E-01-5.00000E-03
 -1       933 7.50000E-01 6.00000E-01 5.00000E-03
 -1       934 7.50000E-01 5.50000E-01-5.00000E-03
 -1       936 7.50000E-01 5.50000E-01 5.00000E-03
 -1       937 7.50000E-01 5.00000E-01-5.00000E-03
 -1       939 7.50000E-01 5.00000E-01 5.00000E-03
 -1       940 7.50000E-01 4.50000E-01-5.00000E-03
 -1       942 7.50000E-01 4.50000E-01 5.00000E-03
 -1       943 7.50000E-01 4.00000E-01-5.00000E-03
 -1       945 7.50000E-01 4.00000E-01 5.00000E-03
 -1       946 7.50000E-01 3.50000E-01-5.00000E-03
 -1       948 7.50000E-01 3.50000E-01 5.00000E-03
 -1       949 7.50000E-01 3.00000E-01-5.00000E-03
 -1       951 7.50000E-01 3.00000E-01 5.00000E-03
 -1       952 7.50000E-01 2.50000E-01-5.00000E-03
 -1       954 7.50000E-01 2.50000E-01 5.00000E-03
 -1       955 7.50000E-01 2.00000E-01-5.00000E-03
 -1       957 7.50000E-01 2.00000E-01 5.00000E-03
 -1       958 7.50000E-01 1.50000E-01-5.00000E-03
 -1       960 7.50000E-01 1.50000E-01 5.00000E-03
 -1       961 7.50000E-01 1.00000E-01-5.00000E-03
 -1       963 7.50000E-01 1.00000E-01 5.00000E-03
 -1       964 7.50000E-01 5.00000E-02-5.00000E-03
 -1       966 7.50000E-01 5.00000E-02 5.00000E-03
 -1       967 7.00000E-01 9.50000E-01-5.00000E-03
 -1       969 7.00000E-01 9.50000E-01 5.00000E-03
 -1       970 7.00000E-01 9.00000E-01-5.00000E-03
 -1       972 7.00000E-01 9.00000E-01 5.00000E-03
 -1       973 7.00000E-01 8.50000E-01-5.00000E-03
 -1       975 7.00000E-01 8.50000E-01 5.00000E-03
 -1       976 7.00000E-01 8.00000E-01-5.00000E-03
 -1       978 7.00000E-01 8.00000E-01 5.00000E-03
 -1       979 7.00000E-01 7.50000E-01-5.00000E-03
 -1       981 7.00000E-01 7.50000E-01 5.00000E-03
 -1       982 7.00000E-01 7.00000E-01-5.00000E-03
 -1       984 7.00000E-01 7.00000E-01 5.00000E-03
 -1       985 7.00000E-01 6.50000E-01-5.00000E-03
 -1       987 7.00000E-01 6.50000E-01 5.00000E-03
 -1       988 7.00000E-01 6.00000E-01-5.00000E-03
 -1       990 7.00000E-01 6.00000E-01 5.00000E-03
 -1       991 7.00000E-01 5.50000E-01-5.00000E-03
 -1       993 7.00000E-01 5.50000E-01 5.00000E-03
 -1       994 7.00000E-01 5.00000E-01-5.00000E-03
 -1       996 7.00000E-01 5.00000E-01 5.00000E-03
 -1       997 7.00000E-01 4.50000E-01-5.00000E-03
 -1       999 7.00000E-01 4.50000E-01 5.00000E-03
 -1      1000 7.00000E-01 4.00000E-01-5.00000E-03
 -1      1002 7.00000E-01 4.00000E-01 5.00000E-03
 -1      1003 7.00000E-01 3.50000E-01-5.00000E-03
 -1      1005 7.00000E-01 3.50000E-01 5.00000E-03
 -1      1006 7.00000E-01 3.00000E-01-5.00000E-03
 -1      1008 7.00000E-01 3.00000E-01 5.00000E-03
 -1      1009 7.00000E-01 2.50000E-01-5.00000E-03
 -1      1011 7.00000E-01 2.50000E-01 5.00000E-03
 -1      1012 7.00000E-01 2.00000E-01-5.00000E-03
 -1      1014 7.00000E-01 2.00000E-01 5.00000E-03
 -1      1015 7.00000E-01 1.50000E-01-5.00000E-03
 -1      1017 7.00000E-01 1.50000E-01 5.00000E-03
 -1      1018 7.00000E-01 1.00000E-01-5.00000E-03
 -1      1020 7.00000E-01 1.00000E-01 5.00000E-03
 -1      1021 7.00000E-01 5.00000E-02-5.00000E-03
 -1      1023 7.00000E-01 5.00000E-02 5.00000E-03
 -1      1024 6.50000E-01 9.50000E-01-5.00000E-03
 -1      1026 6.50000E-01 9.50000E-01 5.00000E-03
 -1      1027 6.50000E-01 9.00000E-01-5.00000E-03
 -1      1029 6.50000E-01 9.00000E-01 5.00000E-03
 -1      1030 6.50000E-01 8.50000E-01-5.00000E-03
 -1      1032 6.50000E-01 8.50000E-01 5.00000E-03
 -1      1033 6.50000E-01 8.00000E-01-5.00000E-03
 -1      1035 6.50000E-01 8.00000E-01 5.00000E-03
 -1      1036 6.50000E-01 7.50000E-01-5.00000E-03
 -1      1038 6.50000E-01 7.50000E-01 5.00000E-03
 -1      1039 6.50000E-01 7.00000E-01-5.00000E-03
 -1      1041 6.50000E-01 7.00000E-01 5.00000E-03
 -1      1042 6.50000E-01 6.50000E-01-5.00000E-03
 -1      1044 6.50000E-01 6.50000E-01 5.00000E-03
 -1      1045 6.50000E-01 6.00000E-01-5.00000E-03
 -1      1047 6.50000E-01 6.00000E-01 5.00000E-03
 -1      1048 6.50000E-01 5.50000E-01-5.00000E-03
 -1      1050 6.50000E-01 5.50000E-01 5.00000E-03
 -1      1051 6.50000E-01 5.00000E-01-5.00000E-03
 -1      1053 6.50000E-01 5.00000E-01 5.00000E-03
 -1      1054 6.50000E-01 4.50000E-01-5.00000E-03
 -1      1056 6.50000E-01 4.50000E-01 5.00000E-03
 -1      1057 6.50000E-01 4.00000E-01-5.00000E-03
 -1      1059 6.50000E-01 4.00000E-01 5.00000E-03
 -1      1060 6.50000E-01 3.50000E-01-5.00000E-03
 -1      1062 6.50000E-01 3.50000E-01 5.00000E-03
 -1      1063 6.50000E-01 3.00000E-01-5.00000E-03
 -1      1065 6.50000E-01 3.00000E-01 5.00000E-03
 -1      1066 6.50000E-01 2.50000E-01-5.00000E-03
 -1      1068 6.50000E-01 2.50000E-01 5.00000E-03
 -1      1069 6.50000E-01 2.00000E-01-5.00000E-03
 -1      1071 6.50000E-01 2.00000E-01 5.00000E-03
 -1      1072 6.50000E-01 1.50000E-01-5.00000E-03
 -1      1074 6.50000E-01 1.50000E-01 5.00000E-03
 -1      1075 6.50000E-01 1.00000E-01-5.00000E-03
 -1      1077 6.50000E-01 1.00000E-01 5.00000E-03
 -1      1078 6.50000E-01 5.00000E-02-5.00000E-03
 -1      1080 6.50000E-01 5.00000E-02 5.00000E-03
 -1      1081 6.00000E-01 9.50000E-01-5.00000E-03
 -1      1083 6.00000E-01 9.50000E-01 5.00000E-03
 -1      1084 6.00000E-01 9.00000E-01-5.00000E-03
 -1      1086 6.00000E-01 9.00000E-01 5.00000E-03
 -1      1087 6.00000E-01 8.50000E-01-5.00000E-03
 -1      1089 6.00000E-01 8.50000E-01 5.00000E-03
 -1      1090 6.00000E-01 8.00000E-01-5.00000E-03
 -1      1092 6.00000E-01 8.00000E-01 5.00000E-03
 -1      1093 6.00000E-01 7.50000E-01-5.00000E-03
 -1      1095 6.00000E-01 7.50000E-01 5.00000E-03
 -1      1096 6.00000E-01 7.00000E-01-5.00000E-03
 -1      1098 6.00000E-01 7.00000E-01 5.00000E-03
 -1      1099 6.00000E-01 6.50000E-01-5.00000E-03
 -1      1101 6.00000E-01 6.50000E-01 5.00000E-03
 -1      1102 6.00000E-01 6.00000E-01-5.00000E-03
 -1      1104 6.00000E-01 6.00000E-01 5.00000E-03
 -1      1105 6.00000E-01 5.50000E-01-5.00000E-03
 -1      1107 6.00000E-01 5.50000E-01 5.00000E-03
 -1      1108 6.00000E-01 5.00000E-01-5.00000E-03
 -1      1110 6.00000E-01 5.00000E-01 5.00000E-03
 -1      1111 6.00000E-01 4.50000E-01-5.00000E-03
 -1      1113 6.00000E-01 4.50000E-01 5.00000E-03
 -1      1114 6.00000E-01 4.00000E-01-5.00000E-03
 -1      1116 6.00000E-01 4.00000E-01 5.00000E-03
 -1      1117 6.00000E-01 3.50000E-01-5.00000E-03
 -1      1119 6.00000E-01 3.50000E-01 5.00000E-03
 -1      1120 6.00000E-01 3.00000E-01-5.00000E-03
 -1      1122 6.00000E-01 3.00000E-01 5.00000E-03
 -1      1123 6.00000E-01 2.50000E-01-5.00000E-03
 -1      1125 6.00000E-01 2.50000E-01 5.00000E-03
 -1      1126 6.00000E-01 2.00000E-01-5.00000E-03
 -1      1128 6.00000E-01 2.00000E-01 5.00000E-03
 -1      1129 6.00000E-01 1.50000E-01-5.00000E-03
 -1      1131 6.00000E-01 1.50000E-01 5.00000E-03
 -1      1132 6.00000E-01 1.00000E-01-5.00000E-03
 -1      1134 6.00000E-01 1.00000E-01 5.00000E-03
 -1      1135 6.00000E-01 5.00000E-02-5.00000E-03
 -1      1137 6.00000E-01 5.00000E-02 5.00000E-03
 -1      1138 5.50000E-01 9.50000E-01-5.00000E-03
 -1      1140 5.50000E-01 9.50000E-01 5.00000E-03
 -1      1141 5.50000E-01 9.00000E-01-5.00000E-03
 -1      1143 5.50000E-01 9.00000E-01 5.00000E-03
 -1      1144 5.50000E-01 8.50000E-01-5.00000E-03
 -1      1146 5.50000E-01 8.50000E-01 5.00000E-03
 -1      1147 5.50000E-01 8.00000E-01-5.00000E-03
 -1      1149 5.50000E-01 8.00000E-01 5.00000E-03
 -1      1150 5.50000E-01 7.50000E-01-5.00000E-03
 -1      1152 5.50000E-01 7.50000E-01 5.00000E-03
 -1      1153 5.50000E-01 7.00000E-01-5.00000E-03
 -1      1155 5.50000E-01 7.00000E-01 5.00000E-03
 -1      1156 5.50000E-01 6.50000E-01-5.00000E-03
 -1      1158 5.50000E-01 6.50000E-01 5.00000E-03
 -1      1159 5.50000E-01 6.00000E-01-5.00000E-03
 -1      1161 5.50000E-01 6.00000E-01 5.00000E-03
 -1      1162 5.50000E-01 5.50000E-01-5.00000E-03
 -1      1164 5.50000E-01 5.50000E-01 5.00000E-03
 -1      1165 5.50000E-01 5.00000E-01-5.00000E-03
 -1      1167 5.50000E-01 5.00000E-01 5.00000E-03
 -1      1168 5.50000E-01 4.50000E-01-5.00000E-03
 -1      1170 5.50000E-01 4.50000E-01 5.00000E-03
 -1      1171 5.50000E-01 4.00000E-01-5.00000E-03
 -1      1173 5.50000E-01 4.00000E-01 5.00000E-03
 -1      1174 5.50000E-01 3.50000E-01-5.00000E-03
 -1      1176 5.50000E-01 3.50000E-01 5.00000E-03
 -1      1177 5.50000E-01 3.00000E-01-5.00000E-03
 -1      1179 5.50000E-01 3.00000E-01 5.00000E-03
 -1      1180 5.50000E-01 2.50000E-01-5.00000E-03
 -1      1182 5.50000E-01 2.50000E-01 5.00000E-03
 -1      1183 5.50000E-01 2.00000E-01-5.00000E-03
 -1      1185 5.50000E-01 2.00000E-01 5.00000E-03
 -1      1186 5.50000E-01 1.50000E-01-5.00000E-03
 -1      1188 5.50000E-01 1.50000E-01 5.00000E-03
 -1      1189 5.50000E-01 1.00000E-01-5.00000E-03
 -1      1191 5.50000E-01 1.00000E-01 5.00000E-03
 -1      1192 5.50000E-01 5.00000E-02-5.00000E-03
 -1      1194 5.50000E-01 5.00000E-02 5.00000E-03
 -1      1195 5.00000E-01 9.50000E-01-5.00000E-03
 -1      1197 5.00000E-01 9.50000E-01 5.00000E-03
 -1      1198 5.00000E-01 9.00000E-01-5.00000E-03
 -1      1200 5.00000E-01 9.00000E-01 5.00000E-03
 -1      1201 5.00000E-01 8.50000E-01-5.00000E-03
 -1      1203 5.00000E-01 8.50000E-01 5.00000E-03